 Gaussian 03, Revision E.01,
 Gaussian 03:  AM64L-G03RevE.01 11-Sep-2007

 ------------------------------------------------------------
 # b3lyp/3-21G* nosymm nofmm maxdisk=80GB gfoldprint pop=full
 ------------------------------------------------------------

 --------------------------------------------
 Optimización Vanadoceno-F funcional densidad
 --------------------------------------------
 Symbolic Z-matrix:
 Charge =  0 Multiplicity = 3

                          Input orientation:
 ---------------------------------------------------------------------
 Center     Atomic     Atomic              Coordinates (Angstroms)
 Number     Number      Type              X           Y           Z
 ---------------------------------------------------------------------
    1          6             0      -11.303461  -16.001055    5.492228
    2          6             0      -12.493159  -20.384158    6.660059
    3          6             0      -12.272028  -15.804033    6.516194
    4          6             0      -12.987337  -20.264834    5.330791
    5          6             0      -13.558137  -16.103145    5.959628
    6          6             0      -14.155518  -19.436180    5.375406
    7          6             0      -13.367527  -16.515285    4.604881
    8          6             0      -14.352106  -19.023327    6.729082
    9          6             0      -11.963336  -16.471594    4.322474
   10          6             0      -13.305663  -19.596329    7.522844
   11          9             0      -10.683763  -18.454286    6.331119
   12          1             0      -10.236139  -15.931530    5.621278
   13          1             0      -11.580472  -20.881122    6.944141
   14          1             0      -12.077139  -15.450512    7.515857
   15          1             0      -12.581748  -20.747364    4.456175
   16          1             0      -14.505302  -15.993576    6.461175
   17          1             0      -14.797316  -19.202532    4.542251
   18          1             0      -14.145690  -16.771359    3.905218
   19          1             0      -15.168173  -18.423429    7.096247
   20          1             0      -11.495389  -16.708898    3.380664
   21          1             0      -13.181895  -19.487260    8.588244
   22         23             0      -12.404702  -18.083191    5.971043
 ---------------------------------------------------------------------

 SCF Done:  E(UB+HF-LYP) =  -1423.84917601     A.U. after   11 cycles

 Alpha  occ. eigenvalues -- -195.62331 -24.46760 -22.20443 -18.66172 -18.66104
 Alpha  occ. eigenvalues --  -18.65294 -10.14399 -10.14368 -10.14353 -10.14321
 Alpha  occ. eigenvalues --  -10.14317 -10.14288 -10.13998 -10.13995 -10.13977
 Alpha  occ. eigenvalues --  -10.13976  -2.67995  -1.70216  -1.69709  -1.69151
 Alpha  occ. eigenvalues --   -1.05352  -0.90394  -0.89576  -0.72707  -0.72352
 Alpha  occ. eigenvalues --   -0.72255  -0.72119  -0.56177  -0.55566  -0.55126
 Alpha  occ. eigenvalues --   -0.55124  -0.54553  -0.53732  -0.42025  -0.41669
 Alpha  occ. eigenvalues --   -0.41620  -0.41583  -0.41516  -0.39534  -0.39178
 Alpha  occ. eigenvalues --   -0.39082  -0.38922  -0.38225  -0.35448  -0.33966
 Alpha  occ. eigenvalues --   -0.33876  -0.26994  -0.26943  -0.26416  -0.22953
 Alpha  occ. eigenvalues --   -0.21525  -0.18201
 Alpha virt. eigenvalues --   -0.03502  -0.02555  -0.01713   0.02587   0.02709
 Alpha virt. eigenvalues --    0.04265   0.04435   0.04905   0.05917   0.06307
 Alpha virt. eigenvalues --    0.07106   0.13816   0.15028   0.17008   0.17862

  Beta  occ. eigenvalues -- -195.62306 -24.46606 -22.18003 -18.64660 -18.64460
  Beta  occ. eigenvalues --  -18.62607 -10.14441 -10.14409 -10.14397 -10.14382
  Beta  occ. eigenvalues --  -10.14361 -10.14350 -10.13954 -10.13950 -10.13933
  Beta  occ. eigenvalues --  -10.13931  -2.60245  -1.63674  -1.62873  -1.57952
  Beta  occ. eigenvalues --   -1.04929  -0.90374  -0.89583  -0.72803  -0.72272
  Beta  occ. eigenvalues --   -0.72222  -0.72176  -0.56111  -0.55556  -0.55130
  Beta  occ. eigenvalues --   -0.55113  -0.54442  -0.53715  -0.41916  -0.41593
  Beta  occ. eigenvalues --   -0.41488  -0.41482  -0.41475  -0.39492  -0.39155
  Beta  occ. eigenvalues --   -0.39059  -0.38908  -0.38282  -0.35119  -0.33488
  Beta  occ. eigenvalues --   -0.31738  -0.26521  -0.26029  -0.25231  -0.22737
  Beta virt. eigenvalues --   -0.03577  -0.03488   0.00482   0.00737   0.01438
  Beta virt. eigenvalues --    0.02761   0.02805   0.04756   0.05034   0.05895
  Beta virt. eigenvalues --    0.06342   0.08485   0.08863   0.15162   0.15215

 Mulliken atomic charges:
              1
     1  C   -0.215035
     2  C   -0.214731
     3  C   -0.344318
     4  C   -0.344168
     5  C   -0.329942
     6  C   -0.329726
     7  C   -0.329722
     8  C   -0.329802
     9  C   -0.344317
    10  C   -0.344081
    11  F   -0.338784
    12  H    0.228049
    13  H    0.227950
    14  H    0.216085
    15  H    0.215980
    16  H    0.208691
    17  H    0.208599
    18  H    0.208643
    19  H    0.208583
    20  H    0.216054
    21  H    0.215961
    22  V    1.310032
 Sum of Mulliken charges=   0.00000

 Dipole moment (field-independent basis, Debye):
    X=    -1.7037    Y=     0.3631    Z=    -0.3554  Tot=     1.7779
 Quadrupole moment (field-independent basis, Debye-Ang):
   XX=   -38.7985   YY=   -99.8508   ZZ=   -78.4166
   XY=    24.1981   XZ=    -6.2969   YZ=    12.4870

 1\1\GINC-PRADES28\SP\UB3LYP\3-21G*\C10H10F1V1(3)\DORIA\16-Aug-2009\0\\
 # b3lyp/3-21G* nosymm nofmm maxdisk=80GB gfoldprint pop=full\\Optimiza
 ción Vanadoceno-F funcional densidad\\0,3\C,0,-11.303461,-16.001055,5.
 492228\C,0,-12.493159,-20.384158,6.660059\C,0,-12.272028,-15.804033,6.
 516194\C,0,-12.987337,-20.264834,5.330791\C,0,-13.558137,-16.103145,5.
 959628\C,0,-14.155518,-19.43618,5.375406\C,0,-13.367527,-16.515285,4.6
 04881\C,0,-14.352106,-19.023327,6.729082\C,0,-11.963336,-16.471594,4.3
 22474\C,0,-13.305663,-19.596329,7.522844\F,0,-10.683763,-18.454286,6.3

 Normal termination of Gaussian 03 at Sun Aug 16 13:57:28 2009.
