 Gaussian 03, Revision B.04,
 Gaussian 03:  SGI64-G03RevB.04 2-Jun-2003

 ----------------------------------------------------------------------
 #P OPBE/LANL2DZ nosymmetry gfoldprint SCF(tight) pop=(regular,npa) GFI
 NPUT IOP(6/7=3)
 ----------------------------------------------------------------------

 ----
 Test
 ----
 Symbolic Z-matrix:
 Charge =  1 Multiplicity = 6

                          Input orientation:
 ---------------------------------------------------------------------
 Center     Atomic     Atomic              Coordinates (Angstroms)
 Number     Number      Type              X           Y           Z
 ---------------------------------------------------------------------
    1          6             0       -0.004100    0.001160    0.002410
    2          6             0        0.000510    0.005210    1.455860
    3          7             0        1.322030    0.005800    1.922960
    4          6             0        2.123650    0.013620    0.801550
    5          6             0        1.312180    0.005150   -0.402730
    6          6             0       -1.128220   -0.008060    2.270750
    7          6             0       -1.151190   -0.027710    3.689900
    8          7             0       -0.029770   -0.028920    4.491570
    9          6             0       -0.496820   -0.052100    5.812900
   10          6             0       -1.950060   -0.077200    5.817200
   11          6             0       -2.355220   -0.063280    4.501000
   12          6             0        0.318200   -0.067460    6.941510
   13          6             0        1.737490   -0.067320    6.964440
   14          7             0        2.539110   -0.043530    5.843220
   15          6             0        3.860620   -0.053880    6.310220
   16          6             0        3.865270   -0.096730    7.763030
   17          6             0        2.548990   -0.106290    8.168090
   18          6             0        4.989350   -0.043480    5.495280
   19          6             0        5.012250   -0.025950    4.076120
   20          6             0        6.216330   -0.037810    3.264410
   21          6             0        5.811180   -0.018430    1.948270
   22          6             0        4.357900    0.003410    1.953190
   23          7             0        3.890800   -0.008780    3.274660
   24         26             0        1.930070    0.359310    3.887990
   25          8             0        1.927990    1.993120    3.907620
   26          6             0        3.542920    0.015860    0.824520
   27          1             0       -2.573220   -0.107570    6.704830
   28          1             0       -3.369860   -0.079180    4.117420
   29          1             0       -0.182190   -0.087910    7.910070
   30          1             0        4.753230   -0.122290    8.385940
   31          1             0        6.434380   -0.024390    1.060180
   32          1             0       -0.892020   -0.009560   -0.620970
   33          1             0        2.165660   -0.139970    9.182390
   34          1             0        7.231020   -0.061370    3.647480
   35          1             0        1.695540   -0.000660   -1.417560
   36          1             0        5.958100   -0.056230    5.995560
   37          1             0        4.043360    0.022040   -0.144220
   38          1             0       -2.096940   -0.009550    1.770250
 ---------------------------------------------------------------------

 SCF Done:  E(UOPTX-PBE) =  -1186.49884105     A.U. after   22 cycles

 Alpha  occ. eigenvalues --  -18.88828 -14.15631 -14.15630 -14.15630 -14.15629
 Alpha  occ. eigenvalues --  -10.08679 -10.08678 -10.08678 -10.08678 -10.08176
 Alpha  occ. eigenvalues --  -10.08176 -10.08176 -10.08175 -10.06870 -10.06870
 Alpha  occ. eigenvalues --  -10.06870 -10.06869 -10.03839 -10.03838 -10.03838
 Alpha  occ. eigenvalues --  -10.03837 -10.03549 -10.03548 -10.03548 -10.03548
 Alpha  occ. eigenvalues --   -3.59051  -2.41066  -2.41066  -2.40630  -1.04939
 Alpha  occ. eigenvalues --   -1.04198  -1.04198  -1.03431  -0.97260  -0.90492
 Alpha  occ. eigenvalues --   -0.88023  -0.88023  -0.85251  -0.84793  -0.84793
 Alpha  occ. eigenvalues --   -0.84485  -0.83611  -0.80670  -0.74990  -0.74990
 Alpha  occ. eigenvalues --   -0.68441  -0.67501  -0.67232  -0.66364  -0.66364
 Alpha  occ. eigenvalues --   -0.64103  -0.62797  -0.61384  -0.61384  -0.60482
 Alpha  occ. eigenvalues --   -0.59524  -0.59524  -0.54949  -0.54268  -0.53126
 Alpha  occ. eigenvalues --   -0.52121  -0.52121  -0.51986  -0.51986  -0.51271
 Alpha  occ. eigenvalues --   -0.50780  -0.50520  -0.50081  -0.49386  -0.49386
 Alpha  occ. eigenvalues --   -0.49011  -0.48483  -0.48091  -0.48091  -0.47198
 Alpha  occ. eigenvalues --   -0.47198  -0.47155  -0.46814  -0.46695  -0.44725
 Alpha  occ. eigenvalues --   -0.44175  -0.42973  -0.42972  -0.40125  -0.40125
 Alpha  occ. eigenvalues --   -0.37046  -0.35833  -0.35805  -0.35805  -0.33948
 Alpha  occ. eigenvalues --   -0.33948  -0.33605  -0.32720  -0.31515
 Alpha virt. eigenvalues --   -0.28651  -0.24868  -0.24868  -0.19649  -0.13351
 Alpha virt. eigenvalues --   -0.11100  -0.11100  -0.09556  -0.08161  -0.07568
 Alpha virt. eigenvalues --   -0.07567  -0.06630  -0.05560  -0.05560  -0.05122

  Beta  occ. eigenvalues --  -18.87509 -14.15393 -14.15393 -14.15393 -14.15392
  Beta  occ. eigenvalues --  -10.08648 -10.08647 -10.08647 -10.08646 -10.08203
  Beta  occ. eigenvalues --  -10.08203 -10.08203 -10.08202 -10.06707 -10.06706
  Beta  occ. eigenvalues --  -10.06706 -10.06706 -10.03790 -10.03789 -10.03789
  Beta  occ. eigenvalues --  -10.03788 -10.03564 -10.03564 -10.03564 -10.03563
  Beta  occ. eigenvalues --   -3.43788  -2.28046  -2.24780  -2.24780  -1.04585
  Beta  occ. eigenvalues --   -1.03864  -1.03863  -1.03103  -0.93235  -0.90090
  Beta  occ. eigenvalues --   -0.87629  -0.87629  -0.84991  -0.84558  -0.84558
  Beta  occ. eigenvalues --   -0.84242  -0.83101  -0.80501  -0.74716  -0.74716
  Beta  occ. eigenvalues --   -0.68300  -0.67267  -0.66791  -0.66182  -0.66182
  Beta  occ. eigenvalues --   -0.63939  -0.62367  -0.61106  -0.61106  -0.59895
  Beta  occ. eigenvalues --   -0.59269  -0.59269  -0.54621  -0.53974  -0.52515
  Beta  occ. eigenvalues --   -0.51799  -0.51799  -0.51310  -0.51310  -0.51114
  Beta  occ. eigenvalues --   -0.50445  -0.49229  -0.48993  -0.48992  -0.48009
  Beta  occ. eigenvalues --   -0.47437  -0.47140  -0.47140  -0.47000  -0.46606
  Beta  occ. eigenvalues --   -0.43840  -0.43473  -0.43210  -0.42112  -0.42112
  Beta  occ. eigenvalues --   -0.39852  -0.39852  -0.39401  -0.39401  -0.36549
  Beta  occ. eigenvalues --   -0.35389  -0.34841  -0.34841  -0.32858
  Beta virt. eigenvalues --   -0.31830  -0.28528  -0.24772  -0.24772  -0.23619
  Beta virt. eigenvalues --   -0.23619  -0.21937  -0.21919  -0.18977  -0.12792
  Beta virt. eigenvalues --   -0.10800  -0.10800  -0.09439  -0.07666  -0.07471

 Mulliken atomic charges:
              1
     1  C   -0.330514
     2  C    0.473487
     3  N   -0.541826
     4  C    0.456481
     5  C   -0.337202
     6  C   -0.446977
     7  C    0.456461
     8  N   -0.542058
     9  C    0.473497
    10  C   -0.330504
    11  C   -0.337204
    12  C   -0.447000
    13  C    0.456434
    14  N   -0.542191
    15  C    0.473516
    16  C   -0.330507
    17  C   -0.337210
    18  C   -0.447012
    19  C    0.456462
    20  C   -0.337205
    21  C   -0.330515
    22  C    0.473517
    23  N   -0.541966
    24  Fe   0.904429
    25  O   -0.270119
    26  C   -0.446990
    27  H    0.271785
    28  H    0.271055
    29  H    0.275342
    30  H    0.271784
    31  H    0.271789
    32  H    0.271787
    33  H    0.271055
    34  H    0.271049
    35  H    0.271051
    36  H    0.275343
    37  H    0.275337
    38  H    0.275340
 Sum of Mulliken charges=   1.00000

 Dipole moment (field-independent basis, Debye):
    X=     9.2749    Y=    -1.9332    Z=    18.6286  Tot=    20.8994
 Quadrupole moment (field-independent basis, Debye-Ang):
   XX=   -61.0825   YY=  -164.6791   ZZ=    -6.7588
   XY=    -3.6403   XZ=    35.9728   YZ=    -8.6303

 Summary of Natural Population Analysis:

                                       Natural Population
                Natural  -----------------------------------------------
    Atom  No    Charge         Core      Valence    Rydberg      Total
 -----------------------------------------------------------------------
      C    1   -0.07384      0.99955     2.06790    0.00639     3.07384
      C    2    0.07596      0.99952     1.91256    0.01197     2.92404
      N    3   -0.22386      0.99970     2.71568    0.00848     3.72386
      C    4    0.11406      0.99953     1.87427    0.01214     2.88594
      C    5   -0.11342      0.99955     2.10738    0.00649     3.11342
      C    6    0.00656      0.99948     1.98372    0.01024     2.99344
      C    7    0.11409      0.99953     1.87425    0.01214     2.88591
      N    8   -0.22395      0.99970     2.71577    0.00849     3.72395
      C    9    0.07596      0.99952     1.91256    0.01197     2.92404
      C   10   -0.07381      0.99955     2.06787    0.00639     3.07381
      C   11   -0.11343      0.99955     2.10738    0.00649     3.11343
      C   12    0.00655      0.99948     1.98373    0.01024     2.99345
      C   13    0.11408      0.99953     1.87426    0.01214     2.88592
      N   14   -0.22401      0.99970     2.71583    0.00849     3.72401
      C   15    0.07595      0.99952     1.91257    0.01197     2.92405
      C   16   -0.07380      0.99955     2.06786    0.00639     3.07380
      C   17   -0.11343      0.99955     2.10739    0.00649     3.11343
      C   18    0.00657      0.99948     1.98371    0.01024     2.99343
      C   19    0.11405      0.99953     1.87429    0.01214     2.88595
      C   20   -0.11342      0.99955     2.10738    0.00649     3.11342
      C   21   -0.07383      0.99955     2.06789    0.00639     3.07383
      C   22    0.07595      0.99952     1.91256    0.01197     2.92405
      N   23   -0.22392      0.99970     2.71573    0.00849     3.72392
     Fe   24    2.19007      8.99385     1.80464    0.01145    10.80993
      O   25    0.16198      0.99998     2.83743    0.00061     3.83802
      C   26    0.00658      0.99948     1.98370    0.01024     2.99342
      H   27    0.12496      0.00000     0.37472    0.00033     0.37504
      H   28    0.12581      0.00000     0.37386    0.00033     0.37419
      H   29    0.12582      0.00000     0.37364    0.00054     0.37418
      H   30    0.12496      0.00000     0.37472    0.00033     0.37504
      H   31    0.12496      0.00000     0.37472    0.00033     0.37504
      H   32    0.12496      0.00000     0.37472    0.00033     0.37504
      H   33    0.12581      0.00000     0.37386    0.00033     0.37419
      H   34    0.12581      0.00000     0.37386    0.00033     0.37419
      H   35    0.12581      0.00000     0.37386    0.00033     0.37419
      H   36    0.12582      0.00000     0.37364    0.00054     0.37418
      H   37    0.12582      0.00000     0.37364    0.00054     0.37418
      H   38    0.12582      0.00000     0.37364    0.00054     0.37418
 =======================================================================
   * Total *    3.00000     33.98314    59.77713    0.23973    94.00000

 Normal termination of Gaussian 03 at Tue Jul 31 05:26:42 2007.
