 Gaussian 03, Revision D.01,
 Gaussian 03:  IA32L-G03RevD.01 13-Oct-2005

 --------------------------------------
 #P PBE1PBE/6-31+g* gfoldprint POP=FULL
 --------------------------------------

 --------------------------------------------
 rhb geometria MP2/6-31G* - PBE0 wizualizacja
 --------------------------------------------
 Symbolic Z-matrix:
 Charge =  0 Multiplicity = 1

                         Standard orientation:
 ---------------------------------------------------------------------
 Center     Atomic     Atomic              Coordinates (Angstroms)
 Number     Number      Type              X           Y           Z
 ---------------------------------------------------------------------
    1          6             0        1.783830    1.141490    0.328500
    2          7             0        1.063328   -0.000009    0.000000
    3          6             0        1.783825   -1.141410   -0.328500
    4          6             0        3.162425   -1.152713   -0.302900
    5          6             0        3.894328   -0.000015    0.000000
    6          6             0        3.162430    1.152687    0.302900
    7          6             0       -0.318572   -0.000006    0.000000
    8          6             0       -1.037575   -1.194805    0.294800
    9          6             0       -2.405975   -1.191002    0.310900
   10          6             0       -3.194172    0.000000    0.000000
   11          6             0       -2.405970    1.190998   -0.310900
   12          6             0       -1.037570    1.194795   -0.294800
   13          8             0       -4.442272    0.000002    0.000000
   14          1             0        1.191232    1.981591    0.664900
   15          1             0        3.663332    2.079086    0.570300
   16          1             0        4.979228   -0.000017    0.000000
   17          1             0        3.663324   -2.079114   -0.570300
   18          1             0        1.191224   -1.981609   -0.664900
   19          1             0       -0.498076   -2.083506    0.617800
   20          1             0       -2.959676   -2.083101    0.593200
   21          1             0       -2.959668    2.083099   -0.593200
   22          1             0       -0.498068    2.083494   -0.617800
 ---------------------------------------------------------------------

 SCF Done:  E(RPBE+HF-PBE) =  -553.884242807     A.U. after   12 cycles

 The electronic state is 1-A.
 Alpha  occ. eigenvalues --  -19.16299 -14.54495 -10.32746 -10.32745 -10.29940
 Alpha  occ. eigenvalues --  -10.29936 -10.29355 -10.28784 -10.28231 -10.25623
 Alpha  occ. eigenvalues --  -10.25622 -10.22935 -10.22935  -1.07680  -1.00679
 Alpha  occ. eigenvalues --   -0.90635  -0.85843  -0.84659  -0.77825  -0.76254
 Alpha  occ. eigenvalues --   -0.71472  -0.69780  -0.63324  -0.62285  -0.58941
 Alpha  occ. eigenvalues --   -0.55538  -0.55330  -0.52711  -0.50706  -0.49720
 Alpha  occ. eigenvalues --   -0.47254  -0.46017  -0.44544  -0.44358  -0.42304
 Alpha  occ. eigenvalues --   -0.42265  -0.39854  -0.38019  -0.37114  -0.35819
 Alpha  occ. eigenvalues --   -0.32737  -0.31473  -0.27343  -0.22475  -0.19114
 Alpha virt. eigenvalues --   -0.09703  -0.05901  -0.00937  -0.00327   0.00748
 Alpha virt. eigenvalues --    0.01327   0.02363   0.03096   0.03570   0.03722
 Alpha virt. eigenvalues --    0.04141   0.05628   0.06135   0.06751   0.07332

 Mulliken atomic charges:
              1
     1  C   -0.275153
     2  N    0.268607
     3  C   -0.275164
     4  C    0.122515
     5  C   -0.724604
     6  C    0.122471
     7  C   -0.397436
     8  C   -0.011975
     9  C   -0.088007
    10  C   -0.159810
    11  C   -0.087938
    12  C   -0.011875
    13  O   -0.553161
    14  H    0.250349
    15  H    0.239451
    16  H    0.238181
    17  H    0.239455
    18  H    0.250341
    19  H    0.204394
    20  H    0.222483
    21  H    0.222483
    22  H    0.204394
 Sum of Mulliken charges=   0.00000

 Dipole moment (field-independent basis, Debye):
    X=    11.2200    Y=     0.0000    Z=     0.0000  Tot=    11.2200
 Quadrupole moment (field-independent basis, Debye-Ang):
   XX=   -96.9560   YY=   -64.4310   ZZ=   -79.5769
   XY=    -0.0002   XZ=     0.0000   YZ=     1.1249

 1\1\GINC-NODE6-3\SP\RPBE1PBE\6-31+G(d)\C11H9N1O1\R0803\06-Jun-2007\0\\
 #P PBE1PBE/6-31+g* gfoldprint POP=FULL\\rhb geometria MP2/6-31G* - PBE
 0 wizualizacja\\0,1\C,0,1.8286,1.1415,0.3285\N,0,1.1081,0.,0.\C,0,1.82
 86,-1.1414,-0.3285\C,0,3.2072,-1.1527,-0.3029\C,0,3.9391,0.,0.\C,0,3.2
 072,1.1527,0.3029\C,0,-0.2738,0.,0.\C,0,-0.9928,-1.1948,0.2948\C,0,-2.
 3612,-1.191,0.3109\C,0,-3.1494,0.,0.\C,0,-2.3612,1.191,-0.3109\C,0,-0.
 9928,1.1948,-0.2948\O,0,-4.3975,0.,0.\H,0,1.236,1.9816,0.6649\H,0,3.70
 81,2.0791,0.5703\H,0,5.024,0.,0.\H,0,3.7081,-2.0791,-0.5703\H,0,1.236,

 Normal termination of Gaussian 03 at Wed Jun  6 11:13:08 2007.
