 Gaussian 03, Revision D.02,
 Gaussian 03:  AM64L-G03RevD.02  1-Mar-2006

 ----------------------------------------------------------------------
 #p hf/sto-3g nosymm nofmm maxdisk=10GB guess=core gfinput gfoldprint p
 opulation=full
 ----------------------------------------------------------------------

 ---------------------------------
 rh2(acetate)4...Cr(III)(cn)3(co)3
 ---------------------------------
 Symbolic Z-matrix:
 Charge =  0 Multiplicity = 4

                          Input orientation:
 ---------------------------------------------------------------------
 Center     Atomic     Atomic              Coordinates (Angstroms)
 Number     Number      Type              X           Y           Z
 ---------------------------------------------------------------------
    1          6             0       13.376637    0.000543   13.375603
    2          6             0       13.376463   -2.275949   15.652145
    3          6             0       11.100087    0.000585   15.651622
    4          6             0       15.652848    0.000303   15.652401
    5          6             0       13.376471    2.276837   15.651878
    6          6             0       13.376298    0.000346   17.928421
    7          6             0       11.346507   -2.029066    8.964549
    8          6             0       15.405322   -2.029148    8.963849
    9          6             0       11.346690    2.029493    8.964572
   10          6             0       15.405505    2.029412    8.963872
   11         24             0       13.376467    0.000444   15.652012
   12          7             0       13.376568    0.000263   12.441996
   13          7             0       10.166286    0.000531   15.652527
   14          7             0       13.376478    3.210138   15.652357
   15          8             0       11.941461   -1.435023    7.920983
   16          8             0       11.941308   -1.435185   10.007864
   17          8             0       14.810805   -1.434752   10.007165
   18          8             0       14.810943   -1.434517    7.921282
   19          8             0       11.941069    1.434863   10.007139
   20          8             0       11.941206    1.435098    7.921255
   21          8             0       14.810551    1.435369   10.007437
   22          8             0       14.810764    1.434535    7.920631
   23         45             0       13.376405   -0.000123   10.105449
   24         45             0       13.375607    0.000469    7.822972
   25          6             0       10.388310    2.987656    8.964525
   26          1             0       10.527446    3.631242    8.121116
   27          1             0        9.423995    2.527579    8.906860
   28          1             0       10.456801    3.560666    9.865563
   29          6             0       10.388462   -2.987563    8.964298
   30          1             0        9.759752   -2.863209    8.107467
   31          1             0       10.849448   -3.952607    8.931385
   32          1             0        9.799761   -2.903657    9.853843
   33          6             0       16.364070    2.987389    8.964196
   34          1             0       15.907390    3.948870    9.073273
   35          1             0       17.037404    2.817924    9.778324
   36          1             0       16.904253    2.951745    8.041249
   37          6             0       16.363702   -2.987310    8.963895
   38          1             0       17.328017   -2.527233    9.021551
   39          1             0       16.224571   -3.630891    9.807309
   40          1             0       16.295205   -3.560326    8.062861
   41          8             0       13.376527   -3.391349   15.651663
   42          8             0       13.376380    0.000680   19.043821
   43          8             0       16.768247    0.000378   15.651320
 ---------------------------------------------------------------------

 SCF Done:  E(UHF) =  -11815.2937099     A.U. after   25 cycles

 Alpha  occ. eigenvalues -- -825.49398-825.27206-218.39900-119.33142-119.10223
 Alpha  occ. eigenvalues -- -112.10721-112.10678-112.09987-111.87674-111.87670
 Alpha  occ. eigenvalues -- -111.87213 -26.10250 -22.37372 -22.36597 -22.36331
 Alpha  occ. eigenvalues --  -22.13886 -21.92600 -20.49070 -20.47465 -20.43539
 Alpha  occ. eigenvalues --  -20.24981 -20.24886 -20.24526 -20.24440 -20.24289
 Alpha  occ. eigenvalues --  -20.24183 -20.23970 -20.23339 -19.25222 -19.24409
 Alpha  occ. eigenvalues --  -19.23147 -19.03165 -19.03144 -19.02322 -15.34338
 Alpha  occ. eigenvalues --  -15.16229 -15.16104 -12.09915 -12.08798 -12.08478
 Alpha  occ. eigenvalues --  -12.07853 -12.06296 -11.87510 -11.87227 -11.87205
 Alpha  occ. eigenvalues --  -11.84809 -11.83780 -11.22684 -11.22552 -11.22284
 Alpha  occ. eigenvalues --  -11.21868 -11.16487 -11.14877 -11.12640 -11.12225
 Alpha  occ. eigenvalues --  -11.12203 -11.11299 -11.11088 -10.97363 -10.83190
 Alpha  occ. eigenvalues --  -10.83059  -3.56986  -3.46303  -3.33506  -2.53742
 Alpha  occ. eigenvalues --   -2.51009  -2.45135  -2.31627  -2.26007  -2.25935
 Alpha  occ. eigenvalues --   -2.24208  -2.23685  -2.22310  -1.51284  -1.49991
 Alpha  occ. eigenvalues --   -1.46221  -1.37065  -1.36431  -1.36232  -1.35624
 Alpha  occ. eigenvalues --   -1.22943  -1.22194  -1.21342  -1.21216  -1.20505
 Alpha  occ. eigenvalues --   -1.10078  -1.09919  -1.06920  -1.06660  -1.06521
 Alpha  occ. eigenvalues --   -1.05662  -0.76069  -0.74695  -0.74659  -0.74347
 Alpha  occ. eigenvalues --   -0.73611  -0.73354  -0.69979  -0.66847  -0.65362
 Alpha  occ. eigenvalues --   -0.65292  -0.64826  -0.64806  -0.64665  -0.64024
 Alpha  occ. eigenvalues --   -0.63875  -0.63079  -0.62432  -0.61792  -0.61103
 Alpha  occ. eigenvalues --   -0.60579  -0.60171  -0.59318  -0.58894  -0.58811
 Alpha  occ. eigenvalues --   -0.57102  -0.56937  -0.55505  -0.54811  -0.54779
 Alpha  occ. eigenvalues --   -0.53944  -0.53280  -0.52724  -0.52012  -0.51887
 Alpha  occ. eigenvalues --   -0.51082  -0.49459  -0.49388  -0.48992  -0.48774
 Alpha  occ. eigenvalues --   -0.48516  -0.48147  -0.48006  -0.47242  -0.44538
 Alpha  occ. eigenvalues --   -0.42915  -0.42158  -0.41278  -0.38994  -0.37244
 Alpha  occ. eigenvalues --   -0.36584  -0.36227  -0.36130  -0.35867  -0.35728
 Alpha  occ. eigenvalues --   -0.35246  -0.35059  -0.34617  -0.34515  -0.34354
 Alpha  occ. eigenvalues --   -0.34316  -0.33497  -0.31834  -0.30383  -0.29837
 Alpha  occ. eigenvalues --   -0.28072  -0.27761  -0.26973  -0.24441  -0.22563
 Alpha  occ. eigenvalues --   -0.18871
 Alpha virt. eigenvalues --    0.16171   0.18828   0.21002   0.21204   0.22647
 Alpha virt. eigenvalues --    0.23267   0.25582   0.25945   0.27609   0.27652
 Alpha virt. eigenvalues --    0.27987   0.30610   0.31639   0.33694   0.41666

  Beta  occ. eigenvalues -- -825.49388-825.27223-218.39863-119.31893-119.10727
  Beta  occ. eigenvalues -- -112.09436-112.09390-112.08876-111.88093-111.87959
  Beta  occ. eigenvalues -- -111.87948 -26.07971 -22.35044 -22.34439 -22.34005
  Beta  occ. eigenvalues --  -22.12755 -21.93068 -20.49095 -20.47532 -20.43864
  Beta  occ. eigenvalues --  -20.25220 -20.24995 -20.24358 -20.24341 -20.24233
  Beta  occ. eigenvalues --  -20.24205 -20.24149 -20.23183 -19.23756 -19.23055
  Beta  occ. eigenvalues --  -19.22058 -19.03593 -19.03562 -19.03011 -15.34147
  Beta  occ. eigenvalues --  -15.16215 -15.16090 -12.07703 -12.07508 -12.05217
  Beta  occ. eigenvalues --  -12.04527 -12.04229 -11.87952 -11.87441 -11.87401
  Beta  occ. eigenvalues --  -11.87186 -11.85315 -11.22677 -11.22578 -11.22190
  Beta  occ. eigenvalues --  -11.21884 -11.16625 -11.15075 -11.12659 -11.12227
  Beta  occ. eigenvalues --  -11.12204 -11.11300 -11.11246 -10.97430 -10.83250
  Beta  occ. eigenvalues --  -10.83111  -3.43873  -3.38696  -3.27017  -2.37715
  Beta  occ. eigenvalues --   -2.35676  -2.33496  -2.30103  -2.30022  -2.29748
  Beta  occ. eigenvalues --   -2.06710  -2.04127  -1.96917  -1.51400  -1.50260
  Beta  occ. eigenvalues --   -1.47279  -1.37062  -1.36379  -1.36345  -1.35650
  Beta  occ. eigenvalues --   -1.22675  -1.22128  -1.21425  -1.21191  -1.20535
  Beta  occ. eigenvalues --   -1.10063  -1.09902  -1.06931  -1.06660  -1.06521
  Beta  occ. eigenvalues --   -1.05678  -0.75919  -0.74946  -0.74592  -0.74348
  Beta  occ. eigenvalues --   -0.73797  -0.73645  -0.70932  -0.66294  -0.65243
  Beta  occ. eigenvalues --   -0.65199  -0.64852  -0.64788  -0.64630  -0.64053
  Beta  occ. eigenvalues --   -0.63884  -0.62900  -0.61839  -0.61642  -0.61080
  Beta  occ. eigenvalues --   -0.60993  -0.60366  -0.60254  -0.59057  -0.58331
  Beta  occ. eigenvalues --   -0.57324  -0.55922  -0.55029  -0.53292  -0.52282
  Beta  occ. eigenvalues --   -0.52102  -0.51963  -0.51884  -0.51589  -0.50606
  Beta  occ. eigenvalues --   -0.50004  -0.49562  -0.48704  -0.48657  -0.48564
  Beta  occ. eigenvalues --   -0.47414  -0.46741  -0.45577  -0.43587  -0.43038
  Beta  occ. eigenvalues --   -0.40101  -0.39915  -0.37999  -0.37839  -0.36940
  Beta  occ. eigenvalues --   -0.36652  -0.36365  -0.36076  -0.35940  -0.35845
  Beta  occ. eigenvalues --   -0.34770  -0.34649  -0.34179  -0.33972  -0.33843
  Beta  occ. eigenvalues --   -0.32769  -0.31685  -0.31460  -0.30121  -0.29057
  Beta  occ. eigenvalues --   -0.27542  -0.25384   0.01155
  Beta virt. eigenvalues --    0.14478   0.18760   0.20934   0.21535   0.22814
  Beta virt. eigenvalues --    0.22966   0.23128   0.23557   0.24979   0.25731
  Beta virt. eigenvalues --    0.26084   0.27735   0.28341   0.30310   0.31056

 Mulliken atomic charges:
              1
     1  C    0.006215
     2  C    0.194974
     3  C   -0.167362
     4  C    0.217497
     5  C   -0.167190
     6  C    0.157599
     7  C    0.364560
     8  C    0.357483
     9  C    0.364127
    10  C    0.366217
    11  Cr   0.941828
    12  N   -0.429074
    13  N   -0.466499
    14  N   -0.466518
    15  O   -0.365019
    16  O   -0.357068
    17  O   -0.358584
    18  O   -0.364379
    19  O   -0.347756
    20  O   -0.369096
    21  O   -0.357900
    22  O   -0.364644
    23  Rh   0.900475
    24  Rh   0.776485
    25  C   -0.265992
    26  H    0.119187
    27  H    0.127655
    28  H    0.133152
    29  C   -0.265430
    30  H    0.121826
    31  H    0.124868
    32  H    0.130559
    33  C   -0.264739
    34  H    0.130944
    35  H    0.126583
    36  H    0.119356
    37  C   -0.263904
    38  H    0.124424
    39  H    0.122527
    40  H    0.119833
    41  O   -0.167154
    42  O   -0.183597
    43  O   -0.156465
 Sum of Mulliken charges=   0.00000

 Dipole moment (field-independent basis, Debye):
    X=     9.4942    Y=    -9.0233    Z=   -16.0543  Tot=    20.7196
 Quadrupole moment (field-independent basis, Debye-Ang):
   XX=    66.6610   YY=  -188.5374   ZZ=  -577.2025
   XY=  -120.0421   XZ=   -64.5958   YZ=  -143.0780

 Normal termination of Gaussian 03 at Mon Mar 17 20:29:37 2008.
