 Gaussian 09, Revision A.02,
 Gaussian 09:  EM64L-G09RevA.02 11-Jun-2009

 ----------------------------------------------------------------------
 #P ub3lyp/aug-cc-pvdz 5D 7F SCF(xqc,tight) int(grid=ultrafine) irc(Max
 cycle=25,rcfc,reverse,maxpoints=40,stepsize=10) guess(read) geom(allch
 eck) nosymm MaxDisk=5000MW
 ----------------------------------------------------------------------

 int7 cis cis ts int8
 --------------------
 Redundant internal coordinates taken from checkpoint file:
 /home/benjfitz/c3h5o-int7-cis-cis-ts-int8_irc-r-ub3lyp-avdz-a2.chk
 Charge =  0 Multiplicity = 2

 SCF Done:  E(UB3LYP) =  -192.407902585     A.U. after   14 cycles
 SCF Done:  E(UB3LYP) =  -192.410107062     A.U. after   14 cycles
 SCF Done:  E(UB3LYP) =  -192.413643696     A.U. after   14 cycles
 SCF Done:  E(UB3LYP) =  -192.418278585     A.U. after   14 cycles
 SCF Done:  E(UB3LYP) =  -192.423731275     A.U. after   14 cycles
 SCF Done:  E(UB3LYP) =  -192.429722717     A.U. after   14 cycles
 SCF Done:  E(UB3LYP) =  -192.436006064     A.U. after   14 cycles
 SCF Done:  E(UB3LYP) =  -192.442379070     A.U. after   14 cycles
 SCF Done:  E(UB3LYP) =  -192.448684611     A.U. after   14 cycles
 SCF Done:  E(UB3LYP) =  -192.454805601     A.U. after   14 cycles
 SCF Done:  E(UB3LYP) =  -192.514989769     A.U. after   11 cycles
 SCF Done:  E(UB3LYP) =  -192.515258209     A.U. after   11 cycles
 SCF Done:  E(UB3LYP) =  -192.515271234     A.U. after   11 cycles
 SCF Done:  E(UB3LYP) =  -192.515509489     A.U. after   12 cycles
 SCF Done:  E(UB3LYP) =  -192.515517570     A.U. after   10 cycles
 SCF Done:  E(UB3LYP) =  -192.515720740     A.U. after   11 cycles
 SCF Done:  E(UB3LYP) =  -192.515727287     A.U. after   11 cycles
 SCF Done:  E(UB3LYP) =  -192.515884047     A.U. after   11 cycles
 SCF Done:  E(UB3LYP) =  -192.515900049     A.U. after   12 cycles
 SCF Done:  E(UB3LYP) =  -192.515899247     A.U. after   10 cycles

                          Input orientation:
 ---------------------------------------------------------------------
 Center     Atomic      Atomic             Coordinates (Angstroms)
 Number     Number       Type             X           Y           Z
 ---------------------------------------------------------------------
      1          6           0       -0.639704    0.101459   -1.551906
      2          6           0       -0.917543   -0.092997   -0.207690
      3          6           0       -0.031183   -0.141644    0.865405
      4          8           0        1.308016    0.092620    0.818405
      5          1           0       -0.362162   -0.375269    1.874530
      6          1           0        0.375757    0.207709   -1.942247
      7          1           0       -1.962425   -0.243954    0.077577
      8          1           0       -1.444460    0.137519   -2.282922
      9          1           0        1.562410    0.378996   -0.069799
 ---------------------------------------------------------------------

 Alpha  occ. eigenvalues --  -19.19872 -10.25523 -10.19751 -10.19563  -1.08147
 Alpha  occ. eigenvalues --   -0.79463  -0.69612  -0.60331  -0.51351  -0.49431
 Alpha  occ. eigenvalues --   -0.42638  -0.41856  -0.39399  -0.36857  -0.30441
 Alpha  occ. eigenvalues --   -0.18386
 Alpha virt. eigenvalues --   -0.01694   0.00051   0.01357   0.02828   0.03277
 Alpha virt. eigenvalues --    0.04318   0.05623   0.07398   0.08090   0.08530
 Alpha virt. eigenvalues --    0.09340   0.09410   0.10662   0.10777   0.11099

  Beta  occ. eigenvalues --  -19.19571 -10.24708 -10.20018 -10.18746  -1.07411
  Beta  occ. eigenvalues --   -0.78542  -0.67712  -0.59587  -0.51023  -0.48799
  Beta  occ. eigenvalues --   -0.41998  -0.39534  -0.38837  -0.36527  -0.27925
  Beta virt. eigenvalues --   -0.07892  -0.01578   0.00063   0.01400   0.03233
  Beta virt. eigenvalues --    0.03990   0.04377   0.07137   0.07464   0.08247
  Beta virt. eigenvalues --    0.09205   0.09404   0.09466   0.10717   0.10941

 Mulliken atomic charges:
              1
     1  C    0.669667
     2  C    1.365878
     3  C    0.771191
     4  O   -0.423794
     5  H   -0.582179
     6  H   -0.616162
     7  H   -0.721408
     8  H   -0.562413
     9  H    0.099219
 Sum of Mulliken atomic charges =   0.00000

 Dipole moment (field-independent basis, Debye):
    X=             -0.2289    Y=              0.1803    Z=             -0.5608  Tot=              0.6320
 Quadrupole moment (field-independent basis, Debye-Ang):
   XX=            -23.7365   YY=            -27.5575   ZZ=            -24.4143
   XY=              1.2106   XZ=             -2.9114   YZ=             -1.0304

  Exact polarizability:   0.000   0.000   0.000   0.000   0.000   0.000
 Approx polarizability:  65.180   1.547  46.583  10.186  -5.311  92.324

 Normal termination of Gaussian 09 at Thu Oct 29 20:20:04 2009.
