 Gaussian 09, Revision A.02,
 Gaussian 09:  EM64L-G09RevA.02 11-Jun-2009

 ----------------------------------------------------------------------
 #P uccsd(maxcyc=100)/aug-cc-pvdz 5D 7F SCF(xqc,tight) Opt(Maxcycle=50,
 ts,vtight,rcfc,noeigentest) freq(noraman) guess(read) nosymm MaxDisk=4
 000MW
 ----------------------------------------------------------------------

 cyclopropanol w/ radical at OH C, geom from opt uccsd avdz vtight p2,
 vibs from qst2 ump2 avdz tight p
 ----------------------------------------------------------------------
 Symbolic Z-matrix:
 Charge =  0 Multiplicity = 2

 SCF Done:  E(UHF) =  -191.196610680     A.U. after   15 cycles
 E2 =    -0.6207718148D+00 EUMP2 =    -0.19181738249466D+03
 SCF Done:  E(UHF) =  -191.196611116     A.U. after    5 cycles
 E2 =    -0.6207713266D+00 EUMP2 =    -0.19181738244236D+03
 SCF Done:  E(UHF) =  -191.189131376     A.U. after   17 cycles
 E2 =    -0.6242998536D+00 EUMP2 =    -0.19181343122957D+03
 SCF Done:  E(UHF) =  -191.195182684     A.U. after   16 cycles
 E2 =    -0.6212014042D+00 EUMP2 =    -0.19181638408854D+03
 SCF Done:  E(UHF) =  -191.194494492     A.U. after   17 cycles
 E2 =    -0.6209478532D+00 EUMP2 =    -0.19181544234558D+03
 SCF Done:  E(UHF) =  -191.194316384     A.U. after   17 cycles
 E2 =    -0.6208956024D+00 EUMP2 =    -0.19181521198604D+03
 SCF Done:  E(UHF) =  -191.194024481     A.U. after   16 cycles
 E2 =    -0.6206442785D+00 EUMP2 =    -0.19181466875981D+03
 SCF Done:  E(UHF) =  -191.193883827     A.U. after   16 cycles
 E2 =    -0.6196831167D+00 EUMP2 =    -0.19181356694384D+03
 SCF Done:  E(UHF) =  -191.192352436     A.U. after   16 cycles
 E2 =    -0.6204854979D+00 EUMP2 =    -0.19181283793383D+03
 SCF Done:  E(UHF) =  -191.192934951     A.U. after   16 cycles
 E2 =    -0.6206161751D+00 EUMP2 =    -0.19181355112640D+03
 E2 =    -0.6206533665D+00 EUMP2 =    -0.19181495509373D+03
 E2 =    -0.6200826662D+00 EUMP2 =    -0.19181569929785D+03
 E2 =    -0.6210222055D+00 EUMP2 =    -0.19181579974091D+03
 E2 =    -0.6203925508D+00 EUMP2 =    -0.19181633577410D+03
 E2 =    -0.6206195419D+00 EUMP2 =    -0.19181719592160D+03
 E2 =    -0.6207886492D+00 EUMP2 =    -0.19181741084794D+03
 E2 =    -0.6208666521D+00 EUMP2 =    -0.19181730453247D+03
 E2 =    -0.6208334841D+00 EUMP2 =    -0.19181737583954D+03
 E2 =    -0.6205137820D+00 EUMP2 =    -0.19181726225960D+03
 E2 =    -0.6207976245D+00 EUMP2 =    -0.19181736365803D+03
 Optimization completed.
    -- Stationary point found.
 Normal termination of Gaussian 09 at Sat Oct 31 19:55:08 2009.

 ----------------------------------------------------------------------
 #P Geom=AllCheck Guess=TCheck SCRF=Check GenChk UCCSD(FC)/Aug-CC-pVDZ
 Freq
 ----------------------------------------------------------------------

 vibs from qst2 ump2 avdz tight p
 ----------------------------------------------------------------------
 Redundant internal coordinates taken from checkpoint file:
 /home/benjfitz/c3h5o-int18-ts-int9-2_opt-uccsd-avdz-vtight-p2b.chk
 Charge =  0 Multiplicity = 2

                          Input orientation:
 ---------------------------------------------------------------------
 Center     Atomic      Atomic             Coordinates (Angstroms)
 Number     Number       Type             X           Y           Z
 ---------------------------------------------------------------------
      1          6           0        0.000225    0.000425   -0.000591
      2          1           0        0.000596   -0.001191    1.096510
      3          1           0        0.991403    0.001901   -0.465090
      4          6           0       -1.173505    0.728673   -0.594725
      5          6           0       -1.180065   -0.742772   -0.621058
      6          1           0       -1.884792   -1.496820   -0.263293
      7          1           0       -1.194825    0.049527   -1.700694
      8          8           0       -2.000350    1.675937   -0.018764
      9          1           0       -2.872968    1.281020    0.110791
 ---------------------------------------------------------------------

 E2 =    -0.6207779129D+00 EUMP2 =    -0.19181738182998D+03
 E2 =    -0.6207657266D+00 EUMP2 =    -0.19181738297035D+03
 E2 =    -0.6207728367D+00 EUMP2 =    -0.19181738168693D+03
 E2 =    -0.6207707915D+00 EUMP2 =    -0.19181738314899D+03
 E2 =    -0.6207652764D+00 EUMP2 =    -0.19181737987753D+03
 E2 =    -0.6207781946D+00 EUMP2 =    -0.19181738569263D+03
 E2 =    -0.6207833037D+00 EUMP2 =    -0.19181739671114D+03
 E2 =    -0.6207602498D+00 EUMP2 =    -0.19181736758472D+03
 E2 =    -0.6208010082D+00 EUMP2 =    -0.19181738784285D+03
 E2 =    -0.6207426722D+00 EUMP2 =    -0.19181737507538D+03
 SCF Done:  E(UHF) =  -191.196561134     A.U. after   11 cycles
 E2 =    -0.6208239605D+00 EUMP2 =    -0.19181738509497D+03
 SCF Done:  E(UHF) =  -191.196658962     A.U. after   11 cycles
 E2 =    -0.6207198153D+00 EUMP2 =    -0.19181737877704D+03
 SCF Done:  E(UHF) =  -191.196599492     A.U. after   12 cycles
 E2 =    -0.6207817463D+00 EUMP2 =    -0.19181738123844D+03
 SCF Done:  E(UHF) =  -191.196621500     A.U. after   12 cycles
 E2 =    -0.6207619783D+00 EUMP2 =    -0.19181738347828D+03
 SCF Done:  E(UHF) =  -191.196649626     A.U. after   10 cycles
 E2 =    -0.6207271571D+00 EUMP2 =    -0.19181737678337D+03
 SCF Done:  E(UHF) =  -191.196570160     A.U. after   11 cycles
 E2 =    -0.6208164899D+00 EUMP2 =    -0.19181738664989D+03
 SCF Done:  E(UHF) =  -191.196632578     A.U. after    7 cycles
 E2 =    -0.6207466457D+00 EUMP2 =    -0.19181737922334D+03
 SCF Done:  E(UHF) =  -191.196588300     A.U. after    9 cycles
 E2 =    -0.6207970533D+00 EUMP2 =    -0.19181738535302D+03
 SCF Done:  E(UHF) =  -191.196605959     A.U. after   10 cycles
 E2 =    -0.6207768869D+00 EUMP2 =    -0.19181738284597D+03
 SCF Done:  E(UHF) =  -191.196615294     A.U. after   12 cycles
 E2 =    -0.6207667884D+00 EUMP2 =    -0.19181738208281D+03

 Alpha  occ. eigenvalues --  -20.60266 -11.32012 -11.26511 -11.26036  -1.40132
 Alpha  occ. eigenvalues --   -1.16974  -0.85784  -0.81411  -0.72170  -0.66606
 Alpha  occ. eigenvalues --   -0.62875  -0.55692  -0.52852  -0.47689  -0.40550
 Alpha  occ. eigenvalues --   -0.30978
 Alpha virt. eigenvalues --    0.03368   0.04831   0.05090   0.05288   0.07093
 Alpha virt. eigenvalues --    0.09562   0.12022   0.12155   0.13099   0.13871
 Alpha virt. eigenvalues --    0.15557   0.15885   0.16755   0.17953   0.20154

  Beta  occ. eigenvalues --  -20.59903 -11.30414 -11.25894 -11.24928  -1.38883
  Beta  occ. eigenvalues --   -1.14512  -0.83334  -0.78068  -0.69809  -0.63492
  Beta  occ. eigenvalues --   -0.61744  -0.54541  -0.50455  -0.45059  -0.36105
  Beta virt. eigenvalues --    0.03281   0.04848   0.05162   0.05278   0.07168
  Beta virt. eigenvalues --    0.08621   0.10239   0.12032   0.12381   0.13774
  Beta virt. eigenvalues --    0.14816   0.16001   0.16457   0.17639   0.18277

 Mulliken atomic charges:
              1
     1  C    0.610553
     2  H   -0.275817
     3  H   -0.314193
     4  C    0.253995
     5  C    0.109278
     6  H   -0.345302
     7  H    0.378111
     8  O   -0.521057
     9  H    0.104431
 Sum of Mulliken atomic charges =   0.00000

 Dipole moment (field-independent basis, Debye):
    X=             -1.1579    Y=             -1.1690    Z=              0.4070  Tot=              1.6950
 Quadrupole moment (field-independent basis, Debye-Ang):
   XX=            -18.7147   YY=            -30.8362   ZZ=            -25.9240
   XY=              1.7731   XZ=             -0.2112   YZ=             -0.4003

 ******    1 imaginary frequencies (negative Signs) ******

                     1                      2                      3
                     A                      A                      A
 Frequencies -- -2091.9694               233.5475               374.5372
 Red. masses --     1.0986                 1.2824                 2.2632
 Frc consts  --     2.8328                 0.0412                 0.1871
 IR Inten    --     7.4025                88.0712                 4.8046

                     4                      5                      6
                     A                      A                      A
 Frequencies --   411.4086               628.2080               736.8948
 Red. masses --     2.4008                 1.4893                 3.4452
 Frc consts  --     0.2394                 0.3463                 1.1022
 IR Inten    --     4.1395               105.0774                19.7596

                     7                      8                      9
                     A                      A                      A
 Frequencies --   848.5160               926.3986               995.1752
 Red. masses --     1.2689                 1.5294                 1.5574
 Frc consts  --     0.5383                 0.7733                 0.9087
 IR Inten    --    17.9183                 1.1297                 8.5757

                    10                     11                     12
                     A                      A                      A
 Frequencies --  1020.1843              1064.0895              1085.4191
 Red. masses --     1.3386                 3.6876                 1.2474
 Frc consts  --     0.8208                 2.4601                 0.8659
 IR Inten    --    13.1378               100.0425                 0.6044

                    13                     14                     15
                     A                      A                      A
 Frequencies --  1201.6197              1324.4858              1427.7211
 Red. masses --     1.7572                 1.3350                 1.9121
 Frc consts  --     1.4949                 1.3799                 2.2964
 IR Inten    --     5.8632                56.7696                66.5173

                    16                     17                     18
                     A                      A                      A
 Frequencies --  1536.4038              2242.1680              3126.2578
 Red. masses --     1.7897                 1.0554                 1.0527
 Frc consts  --     2.4891                 3.1262                 6.0620
 IR Inten    --    42.7019                 5.3736                18.9850

                    19                     20                     21
                     A                      A                      A
 Frequencies --  3213.3489              3227.3298              3813.6973
 Red. masses --     1.1178                 1.0975                 1.0666
 Frc consts  --     6.8002                 6.7353                 9.1403
 IR Inten    --    13.2034                 3.6432                36.2680

 - Thermochemistry -
 -------------------
 Temperature   298.150 Kelvin.  Pressure   1.00000 Atm.
 Atom     1 has atomic number  6 and mass  12.00000

 Molecular mass:    57.03404 amu.
 Principal axes and moments of inertia in atomic units:
                           1         2         3
     Eigenvalues --    95.21988 265.50751 319.47691
           X           -0.60006   0.75276  -0.27070
           Y            0.79461   0.52182  -0.31031
           Z            0.09233   0.40131   0.91128
 This molecule is an asymmetric top.
 Rotational symmetry number  1.
 Rotational temperatures (Kelvin)      0.90962     0.32622     0.27111
 Rotational constants (GHZ):          18.95341     6.79733     5.64905
    1 imaginary frequencies ignored.
 Zero-point vibrational energy     176074.8 (Joules/Mol)
                                   42.08289 (Kcal/Mol)
 Warning -- explicit consideration of   3 degrees of freedom as
           vibrations may cause significant error
 Vibrational temperatures:    336.02   538.87   591.92   903.85  1060.23
          (Kelvin)           1220.82  1332.88  1431.83  1467.82  1530.99
                             1561.67  1728.86  1905.64  2054.17  2210.54
                             3225.98  4497.98  4623.29  4643.40  5487.05

 Zero-point correction=                           0.067063 (Hartree/Particle)
 Thermal correction to Energy=                    0.071562
 Thermal correction to Enthalpy=                  0.072506
 Thermal correction to Gibbs Free Energy=         0.040083
 Sum of electronic and zero-point Energies=           -191.785061
 Sum of electronic and thermal Energies=              -191.780562
 Sum of electronic and thermal Enthalpies=            -191.779618
 Sum of electronic and thermal Free Energies=         -191.812041

                     E (Thermal)             CV                S
                      KCal/Mol        Cal/Mol-Kelvin    Cal/Mol-Kelvin
 Total                   44.906             15.343             68.240
 Electronic               0.000              0.000              1.377
 Translational            0.889              2.981             38.044
 Rotational               0.889              2.981             23.606
 Vibrational             43.128              9.382              5.212
 Vibration     1          0.654              1.790              1.852
 Vibration     2          0.746              1.524              1.061
 Vibration     3          0.775              1.445              0.922

 Optimization completed.
    -- Stationary point found.
 Normal termination of Gaussian 09 at Tue Nov  3 03:24:22 2009.
