 Gaussian 09, Revision A.02,
 Gaussian 09:  EM64L-G09RevA.02 11-Jun-2009

 ----------------------------------------------------------------------
 #P ump2/aug-cc-pvdz 5D 7F SCF(xqc,tight) Opt(Maxcycle=50,qst2,tight,ca
 lcall) nosymm MaxDisk=4000MW
 ----------------------------------------------------------------------

 --------------------------------
 cyclopropanol w/ radical at OH C
 --------------------------------
 Symbolic Z-matrix:
 Charge =  0 Multiplicity = 2

 --------------------------------
 cyclopropanol w/ radical at OH C
 --------------------------------
 Symbolic Z-matrix:
 Charge =  0 Multiplicity = 2

 SCF Done:  E(UHF) =  -191.042915424     A.U. after   23 cycles
 E2 =    -0.6384405514D+00 EUMP2 =    -0.19168135597571D+03
 E2 =    -0.6384405514D+00 EUMP2 =    -0.19168135597571D+03
 SCF Done:  E(UHF) =  -191.059876757     A.U. after   22 cycles
 E2 =    -0.6365769860D+00 EUMP2 =    -0.19169645374336D+03
 E2 =    -0.6365769860D+00 EUMP2 =    -0.19169645374336D+03
 SCF Done:  E(UHF) =  -191.082437926     A.U. after   22 cycles
 E2 =    -0.6331598242D+00 EUMP2 =    -0.19171559775026D+03
 E2 =    -0.6331598242D+00 EUMP2 =    -0.19171559775026D+03
 SCF Done:  E(UHF) =  -191.107344636     A.U. after   21 cycles
 E2 =    -0.6288628885D+00 EUMP2 =    -0.19173620752421D+03
 E2 =    -0.6288628885D+00 EUMP2 =    -0.19173620752421D+03
 SCF Done:  E(UHF) =  -191.125312706     A.U. after   20 cycles
 E2 =    -0.6254056749D+00 EUMP2 =    -0.19175071838062D+03
 E2 =    -0.6254056749D+00 EUMP2 =    -0.19175071838062D+03
 SCF Done:  E(UHF) =  -191.135959284     A.U. after   19 cycles
 E2 =    -0.6246169755D+00 EUMP2 =    -0.19176057625950D+03
 E2 =    -0.6246169755D+00 EUMP2 =    -0.19176057625950D+03
 SCF Done:  E(UHF) =  -191.149627550     A.U. after   18 cycles
 E2 =    -0.6234920470D+00 EUMP2 =    -0.19177311959729D+03
 E2 =    -0.6234920470D+00 EUMP2 =    -0.19177311959729D+03
 SCF Done:  E(UHF) =  -191.162797550     A.U. after   18 cycles
 E2 =    -0.6224627228D+00 EUMP2 =    -0.19178526027244D+03
 E2 =    -0.6224627228D+00 EUMP2 =    -0.19178526027244D+03
 SCF Done:  E(UHF) =  -191.174156393     A.U. after   18 cycles
 E2 =    -0.6216527134D+00 EUMP2 =    -0.19179580910683D+03
 E2 =    -0.6216527134D+00 EUMP2 =    -0.19179580910683D+03
 SCF Done:  E(UHF) =  -191.183241863     A.U. after   17 cycles
 E2 =    -0.6210960694D+00 EUMP2 =    -0.19180433793261D+03
 E2 =    -0.6210960694D+00 EUMP2 =    -0.19180433793261D+03
 SCF Done:  E(UHF) =  -191.189907064     A.U. after   16 cycles
 E2 =    -0.6207888249D+00 EUMP2 =    -0.19181069588858D+03
 E2 =    -0.6207888249D+00 EUMP2 =    -0.19181069588858D+03
 SCF Done:  E(UHF) =  -191.194160866     A.U. after   16 cycles
 E2 =    -0.6207094968D+00 EUMP2 =    -0.19181487036237D+03
 E2 =    -0.6207094968D+00 EUMP2 =    -0.19181487036237D+03
 SCF Done:  E(UHF) =  -191.196159112     A.U. after   16 cycles
 E2 =    -0.6208135458D+00 EUMP2 =    -0.19181697265762D+03
 E2 =    -0.6208135458D+00 EUMP2 =    -0.19181697265762D+03
 SCF Done:  E(UHF) =  -191.196574482     A.U. after   16 cycles
 E2 =    -0.6209504101D+00 EUMP2 =    -0.19181752489184D+03
 E2 =    -0.6209504101D+00 EUMP2 =    -0.19181752489184D+03
 SCF Done:  E(UHF) =  -191.196590743     A.U. after   15 cycles
 E2 =    -0.6209819665D+00 EUMP2 =    -0.19181757270911D+03
 E2 =    -0.6209819665D+00 EUMP2 =    -0.19181757270911D+03
 SCF Done:  E(UHF) =  -191.196587762     A.U. after   12 cycles
 E2 =    -0.6209851537D+00 EUMP2 =    -0.19181757291608D+03
 E2 =    -0.6209851537D+00 EUMP2 =    -0.19181757291608D+03
 Optimization completed.
    -- Stationary point found.

                          Input orientation:
 ---------------------------------------------------------------------
 Center     Atomic      Atomic             Coordinates (Angstroms)
 Number     Number       Type             X           Y           Z
 ---------------------------------------------------------------------
      1          6           0        0.083055   -0.127430   -0.141695
      2          1           0       -0.239810   -0.564690    0.809515
      3          1           0        0.945723    0.540999   -0.081958
      4          6           0       -1.049426    0.100263   -1.099664
      5          6           0       -0.145795   -1.034897   -1.346162
      6          1           0       -0.324340   -2.104101   -1.473907
      7          1           0       -0.352548   -0.010964   -2.162382
      8          8           0       -2.405738    0.204732   -0.852048
      9          1           0       -2.838156   -0.593779   -1.192421
 ---------------------------------------------------------------------

 Alpha  occ. eigenvalues --  -20.60322 -11.31924 -11.26479 -11.26050  -1.40106
 Alpha  occ. eigenvalues --   -1.17267  -0.86092  -0.81369  -0.72237  -0.66716
 Alpha  occ. eigenvalues --   -0.62889  -0.55799  -0.53027  -0.47769  -0.40509
 Alpha  occ. eigenvalues --   -0.31095
 Alpha virt. eigenvalues --    0.03358   0.04829   0.05100   0.05296   0.07091
 Alpha virt. eigenvalues --    0.09559   0.12035   0.12175   0.13102   0.13856
 Alpha virt. eigenvalues --    0.15500   0.15887   0.16767   0.17993   0.20191

  Beta  occ. eigenvalues --  -20.59970 -11.30358 -11.25903 -11.24880  -1.38885
  Beta  occ. eigenvalues --   -1.14817  -0.83609  -0.78003  -0.69878  -0.63638
  Beta  occ. eigenvalues --   -0.61834  -0.54744  -0.50583  -0.45142  -0.35908
  Beta virt. eigenvalues --    0.03268   0.04846   0.05168   0.05283   0.07163
  Beta virt. eigenvalues --    0.08574   0.10214   0.12044   0.12396   0.13760
  Beta virt. eigenvalues --    0.14770   0.16006   0.16436   0.17601   0.18284

 Mulliken atomic charges:
              1
     1  C    0.562809
     2  H   -0.236940
     3  H   -0.280654
     4  C    0.341629
     5  C    0.034356
     6  H   -0.309244
     7  H    0.429218
     8  O   -0.677566
     9  H    0.136392
 Sum of Mulliken atomic charges =   0.00000

 Dipole moment (field-independent basis, Debye):
    X=             -0.1973    Y=             -1.7925    Z=             -0.3654  Tot=              1.8400
 Quadrupole moment (field-independent basis, Debye-Ang):
   XX=            -25.5277   YY=            -24.4174   ZZ=            -23.9024
   XY=              5.8061   XZ=              2.7642   YZ=              1.9443

  Exact polarizability:  48.410  -3.542  44.360   0.424   1.954  42.294
 Approx polarizability:  37.590  -2.591  38.081   0.053   1.630  35.574

 ******    1 imaginary frequencies (negative Signs) ******

                     1                      2                      3
                     A                      A                      A
 Frequencies -- -2103.8986               232.0025               367.5006
 Red. masses --     1.0961                 1.3041                 2.1649
 Frc consts  --     2.8585                 0.0414                 0.1723
 IR Inten    --    11.1549                89.6804                 4.4305

                     4                      5                      6
                     A                      A                      A
 Frequencies --   413.3394               603.8290               724.0545
 Red. masses --     2.3438                 1.5638                 4.0524
 Frc consts  --     0.2359                 0.3359                 1.2517
 IR Inten    --     4.7910               120.5946                20.0655

                     7                      8                      9
                     A                      A                      A
 Frequencies --   833.8521               932.1997               983.2656
 Red. masses --     1.2256                 1.6495                 1.4133
 Frc consts  --     0.5021                 0.8446                 0.8050
 IR Inten    --    22.1830                 1.8393                14.6102

                    10                     11                     12
                     A                      A                      A
 Frequencies --  1018.3310              1047.3560              1078.5052
 Red. masses --     1.3277                 3.3577                 1.2993
 Frc consts  --     0.8112                 2.1701                 0.8904
 IR Inten    --    10.1899               109.1394                 6.4425

                    13                     14                     15
                     A                      A                      A
 Frequencies --  1204.9932              1302.5076              1418.7271
 Red. masses --     1.7330                 1.3590                 1.9854
 Frc consts  --     1.4826                 1.3584                 2.3545
 IR Inten    --    10.0708                46.8385                71.0671

                    16                     17                     18
                     A                      A                      A
 Frequencies --  1526.6292              2417.2556              3147.4991
 Red. masses --     1.6733                 1.0564                 1.0523
 Frc consts  --     2.2977                 3.6369                 6.1422
 IR Inten    --    39.6052                 6.6859                15.6781

                    19                     20                     21
                     A                      A                      A
 Frequencies --  3242.5115              3246.2395              3776.3399
 Red. masses --     1.1069                 1.1095                 1.0667
 Frc consts  --     6.8566                 6.8886                 8.9627
 IR Inten    --     2.7453                 9.7043                42.1569

 - Thermochemistry -
 -------------------
 Temperature   298.150 Kelvin.  Pressure   1.00000 Atm.
 Atom     1 has atomic number  6 and mass  12.00000

 Molecular mass:    57.03404 amu.
 Principal axes and moments of inertia in atomic units:
                           1         2         3
     Eigenvalues --    94.82359 265.03054 318.96431
           X            0.95401   0.11638   0.27625
           Y           -0.28746   0.61649   0.73301
           Z            0.08500   0.77871  -0.62160
 This molecule is an asymmetric top.
 Rotational symmetry number  1.
 Rotational temperatures (Kelvin)      0.91342     0.32681     0.27155
 Rotational constants (GHZ):          19.03262     6.80956     5.65813
    1 imaginary frequencies ignored.
 Zero-point vibrational energy     176550.5 (Joules/Mol)
                                   42.19658 (Kcal/Mol)
 Warning -- explicit consideration of   4 degrees of freedom as
           vibrations may cause significant error
 Vibrational temperatures:    333.80   528.75   594.70   868.77  1041.75
          (Kelvin)           1199.73  1341.23  1414.70  1465.15  1506.91
                             1551.73  1733.71  1874.02  2041.23  2196.48
                             3477.89  4528.54  4665.25  4670.61  5433.30

 Zero-point correction=                           0.067245 (Hartree/Particle)
 Thermal correction to Energy=                    0.071777
 Thermal correction to Enthalpy=                  0.072721
 Thermal correction to Gibbs Free Energy=         0.040250
 Sum of electronic and zero-point Energies=           -191.750328
 Sum of electronic and thermal Energies=              -191.745796
 Sum of electronic and thermal Enthalpies=            -191.744852
 Sum of electronic and thermal Free Energies=         -191.777323

                     E (Thermal)             CV                S
                      KCal/Mol        Cal/Mol-Kelvin    Cal/Mol-Kelvin
 Total                   45.041             15.495             68.342
 Electronic               0.000              0.000              1.377
 Translational            0.889              2.981             38.044
 Rotational               0.889              2.981             23.598
 Vibrational             43.263              9.533              5.322
 Vibration     1          0.653              1.792              1.863
 Vibration     2          0.740              1.539              1.090
 Vibration     3          0.777              1.441              0.915
 Vibration     4          0.962              1.024              0.443

 Normal termination of Gaussian 09 at Fri Oct 23 20:20:17 2009.
