 Gaussian 09, Revision A.02,
 Gaussian 09:  EM64L-G09RevA.02 11-Jun-2009

 ----------------------------------------------------------------------
 #P ub3lyp/aug-cc-pvdz 5D 7F SCF(xqc,tight) int(grid=ultrafine) irc(Max
 cycle=25,rcfc,forward,maxpoints=40,stepsize=10) guess(read) geom(allch
 eck) nosymm MaxDisk=5000MW
 ----------------------------------------------------------------------

 int7 cis cis ts int8
 --------------------
 Redundant internal coordinates taken from checkpoint file:
 /home/benjfitz/c3h5o-int7-cis-cis-ts-int8_irc-f-ub3lyp-avdz-a2.chk
 Charge =  0 Multiplicity = 2

 SCF Done:  E(UB3LYP) =  -192.407875784     A.U. after   14 cycles
 SCF Done:  E(UB3LYP) =  -192.409902240     A.U. after   14 cycles
 SCF Done:  E(UB3LYP) =  -192.413000214     A.U. after   15 cycles
 SCF Done:  E(UB3LYP) =  -192.416886218     A.U. after   15 cycles
 SCF Done:  E(UB3LYP) =  -192.421284696     A.U. after   15 cycles
 SCF Done:  E(UB3LYP) =  -192.425956049     A.U. after   15 cycles
 SCF Done:  E(UB3LYP) =  -192.430707259     A.U. after   14 cycles
 SCF Done:  E(UB3LYP) =  -192.435390936     A.U. after   14 cycles
 SCF Done:  E(UB3LYP) =  -192.439898915     A.U. after   14 cycles
 SCF Done:  E(UB3LYP) =  -192.444154810     A.U. after   14 cycles
 SCF Done:  E(UB3LYP) =  -192.473370327     A.U. after   10 cycles
 SCF Done:  E(UB3LYP) =  -192.473379580     A.U. after   12 cycles
 SCF Done:  E(UB3LYP) =  -192.473379517     A.U. after   11 cycles
 SCF Done:  E(UB3LYP) =  -192.473379207     A.U. after   11 cycles
 SCF Done:  E(UB3LYP) =  -192.473381210     A.U. after   11 cycles
 SCF Done:  E(UB3LYP) =  -192.473381493     A.U. after   11 cycles
 SCF Done:  E(UB3LYP) =  -192.473382127     A.U. after   11 cycles
 SCF Done:  E(UB3LYP) =  -192.473382268     A.U. after   11 cycles
 SCF Done:  E(UB3LYP) =  -192.473382536     A.U. after   11 cycles
 SCF Done:  E(UB3LYP) =  -192.473382639     A.U. after   11 cycles

                          Input orientation:
 ---------------------------------------------------------------------
 Center     Atomic      Atomic             Coordinates (Angstroms)
 Number     Number       Type             X           Y           Z
 ---------------------------------------------------------------------
      1          6           0       -0.866880    0.019661   -1.616233
      2          6           0       -0.818439   -0.069259   -0.147993
      3          6           0       -0.017692   -0.059812    0.899639
      4          8           0        1.366438    0.083388    0.907569
      5          1           0       -0.386633   -0.167186    1.920513
      6          1           0        0.145304   -0.040329   -2.062169
      7          1           0       -1.450950   -0.807550   -2.049283
      8          1           0       -1.320449    0.963660   -1.954142
      9          1           0        1.684741    0.186484    0.001260
 ---------------------------------------------------------------------

 Alpha  occ. eigenvalues --  -19.18142 -10.24366 -10.21219 -10.20569  -1.05789
 Alpha  occ. eigenvalues --   -0.79258  -0.70950  -0.59602  -0.48568  -0.47179
 Alpha  occ. eigenvalues --   -0.43611  -0.42231  -0.38470  -0.38376  -0.23952
 Alpha  occ. eigenvalues --   -0.23427
 Alpha virt. eigenvalues --   -0.02206   0.00647   0.01355   0.01653   0.03165
 Alpha virt. eigenvalues --    0.03763   0.05393   0.07262   0.07699   0.08260
 Alpha virt. eigenvalues --    0.08777   0.10338   0.10761   0.11190   0.11871

  Beta  occ. eigenvalues --  -19.17959 -10.24496 -10.21226 -10.19093  -1.05323
  Beta  occ. eigenvalues --   -0.77459  -0.70465  -0.58656  -0.47708  -0.45174
  Beta  occ. eigenvalues --   -0.43284  -0.41536  -0.38524  -0.37783  -0.23002
  Beta virt. eigenvalues --   -0.08592  -0.02152   0.00774   0.01400   0.01942
  Beta virt. eigenvalues --    0.03540   0.03869   0.05706   0.07300   0.07904
  Beta virt. eigenvalues --    0.08324   0.08859   0.10411   0.10858   0.11371

 Mulliken atomic charges:
              1
     1  C    0.626263
     2  C   -0.144708
     3  C    1.030275
     4  O   -0.419366
     5  H   -0.551880
     6  H   -0.286361
     7  H   -0.176956
     8  H   -0.145520
     9  H    0.068253
 Sum of Mulliken atomic charges =   0.00000

 Dipole moment (field-independent basis, Debye):
    X=             -0.0280    Y=              0.1299    Z=             -1.9507  Tot=              1.9552
 Quadrupole moment (field-independent basis, Debye-Ang):
   XX=            -25.6193   YY=            -26.3967   ZZ=            -23.1607
   XY=              0.2983   XZ=             -2.1766   YZ=             -0.4310

  Exact polarizability:   0.000   0.000   0.000   0.000   0.000   0.000
 Approx polarizability:  67.807   0.925  47.266  14.032  -0.627  76.220

 Normal termination of Gaussian 09 at Thu Oct 29 19:34:36 2009.
